15
Properties=species:S:1:pos:R:3:forces:R:3 config_type=SCAN-UO energy=-774327.6865986723 pbc="F F F"
U       -0.00000455      -0.00000459       0.00063615       0.00019386       0.00019369     -28.45312429
O        0.00000551       0.00000547       1.48451991      -0.00002931      -0.00002926      28.14234586
O        0.00012372       0.00012367      -1.73346490      -0.00020176      -0.00020176      -0.03120610
O        2.41229944      -0.00000581      -0.00005166       0.26032819      -0.00001056       0.18116431
H        2.99594757      -0.00003941       0.77866791       0.05906289       0.00001066      -0.11262181
H        2.99510273       0.00003033      -0.77940701      -0.01844262      -0.00000249       0.00687727
O       -0.00000578       2.41229938      -0.00005166      -0.00001056       0.26032809       0.18116431
H       -0.00003938       2.99594751       0.77866791       0.00001066       0.05906301      -0.11262167
H        0.00003036       2.99510267      -0.77940700      -0.00000249      -0.01844250       0.00687712
O       -2.41232422      -0.00000487      -0.00009101      -0.26041110      -0.00001091       0.18130505
H       -2.99590344      -0.00003819       0.77867997      -0.05908243       0.00001065      -0.11255900
H       -2.99522271       0.00003153      -0.77937491       0.01858313      -0.00000252       0.00671987
O       -0.00000484      -2.41232426      -0.00009100      -0.00001091      -0.26041087       0.18130505
H       -0.00003816      -2.99590347       0.77867998       0.00001065      -0.05908256      -0.11255887
H        0.00003156      -2.99522275      -0.77937490      -0.00000251       0.01858300       0.00671974
15
Properties=species:S:1:pos:R:3:forces:R:3 config_type=SCAN-UO energy=-774328.6015589111 pbc="F F F"
U       -0.00000455      -0.00000459       0.00063615       0.00024653       0.00024638     -21.79905053
O        0.00000576       0.00000572       1.52147643      -0.00007463      -0.00007460      21.48903090
O        0.00012372       0.00012367      -1.73346490      -0.00020943      -0.00020943       0.02816058
O        2.41229944      -0.00000581      -0.00005166       0.21875304      -0.00000985       0.14896513
H        2.99594757      -0.00003941       0.77866791       0.04835993       0.00001041      -0.09599535
H        2.99510273       0.00003033      -0.77940701      -0.01567447      -0.00000253       0.00731489
O       -0.00000578       2.41229938      -0.00005166      -0.00000985       0.21875292       0.14896513
H       -0.00003938       2.99594751       0.77866791       0.00001041       0.04836005      -0.09599520
H        0.00003036       2.99510267      -0.77940700      -0.00000252      -0.01567434       0.00731474
O       -2.41232422      -0.00000487      -0.00009101      -0.21883987      -0.00001022       0.14911136
H       -2.99590344      -0.00003819       0.77867997      -0.04837836       0.00001039      -0.09593303
H       -2.99522271       0.00003153      -0.77937491       0.01581745      -0.00000255       0.00715565
O       -0.00000484      -2.41232426      -0.00009100      -0.00001022      -0.21883960       0.14911136
H       -0.00003816      -2.99590347       0.77867998       0.00001039      -0.04837849      -0.09593290
H        0.00003156      -2.99522275      -0.77937490      -0.00000255       0.01581732       0.00715552
15
Properties=species:S:1:pos:R:3:forces:R:3 config_type=SCAN-UO energy=-774329.2921314234 pbc="F F F"
U       -0.00000455      -0.00000459       0.00063615       0.00028433       0.00028417     -16.25785856
O        0.00000601       0.00000597       1.55843295      -0.00010843      -0.00010841      15.97264817
O        0.00012372       0.00012367      -1.73346490      -0.00021274      -0.00021273       0.06150421
O        2.41229944      -0.00000581      -0.00005166       0.17816107      -0.00000923       0.11870561
H        2.99594757      -0.00003941       0.77866791       0.03829871       0.00001015      -0.07928440
H        2.99510273       0.00003033      -0.77940701      -0.01293624      -0.00000251       0.00727448
O       -0.00000578       2.41229938      -0.00005166      -0.00000923       0.17816098       0.11870560
H       -0.00003938       2.99594751       0.77866791       0.00001015       0.03829883      -0.07928425
H        0.00003036       2.99510267      -0.77940700      -0.00000250      -0.01293611       0.00727433
O       -2.41232422      -0.00000487      -0.00009101      -0.17825162      -0.00000962       0.11885690
H       -2.99590344      -0.00003819       0.77867997      -0.03831605       0.00001012      -0.07922250
H       -2.99522271       0.00003153      -0.77937491       0.01308147      -0.00000253       0.00711351
O       -0.00000484      -2.41232426      -0.00009100      -0.00000962      -0.17825137       0.11885690
H       -0.00003816      -2.99590347       0.77867998       0.00001013      -0.03831618      -0.07922238
H        0.00003156      -2.99522275      -0.77937490      -0.00000253       0.01308134       0.00711338
15
Properties=species:S:1:pos:R:3:forces:R:3 config_type=SCAN-UO energy=-774329.7961823322 pbc="F F F"
U       -0.00000455      -0.00000459       0.00063615       0.00031030       0.00031017     -11.63213435
O        0.00000626       0.00000622       1.59538947      -0.00013316      -0.00013314      11.39108104
O        0.00012372       0.00012367      -1.73346490      -0.00021260      -0.00021260       0.07379767
O        2.41229944      -0.00000581      -0.00005166       0.13870406      -0.00000870       0.09035567
H        2.99594757      -0.00003941       0.77866791       0.02888919       0.00000988      -0.06258796
H        2.99510273       0.00003033      -0.77940701      -0.01023756      -0.00000244       0.00678974
O       -0.00000578       2.41229938      -0.00005166      -0.00000870       0.13870396       0.09035567
H       -0.00003938       2.99594751       0.77866791       0.00000988       0.02888931      -0.06258781
H        0.00003036       2.99510267      -0.77940700      -0.00000244      -0.01023744       0.00678960
O       -2.41232422      -0.00000487      -0.00009101      -0.13879804      -0.00000911       0.09051160
H       -2.99590344      -0.00003819       0.77867997      -0.02890546       0.00000985      -0.06252640
H       -2.99522271       0.00003153      -0.77937491       0.01038480      -0.00000246       0.00662713
O       -0.00000484      -2.41232426      -0.00009100      -0.00000911      -0.13879780       0.09051160
H       -0.00003816      -2.99590347       0.77867998       0.00000985      -0.02890558      -0.06252627
H        0.00003156      -2.99522275      -0.77937490      -0.00000246       0.01038468       0.00662700
15
Properties=species:S:1:pos:R:3:forces:R:3 config_type=SCAN-UO energy=-774330.1451009259 pbc="F F F"
U       -0.00000455      -0.00000459       0.00063615       0.00032707       0.00032694      -7.76167556
O        0.00000651       0.00000647       1.63234599      -0.00015136      -0.00015135       7.57965076
O        0.00012372       0.00012367      -1.73346490      -0.00020985      -0.00020984       0.06959431
O        2.41229944      -0.00000581      -0.00005166       0.10051255      -0.00000824       0.06387842
H        2.99594757      -0.00003941       0.77866791       0.02013689       0.00000959      -0.04599956
H        2.99510273       0.00003033      -0.77940701      -0.00758735      -0.00000233       0.00589617
O       -0.00000578       2.41229938      -0.00005166      -0.00000824       0.10051244       0.06387842
H       -0.00003938       2.99594751       0.77866791       0.00000960       0.02013701      -0.04599941
H        0.00003036       2.99510267      -0.77940700      -0.00000233      -0.00758723       0.00589602
O       -2.41232422      -0.00000487      -0.00009101      -0.10060967      -0.00000867       0.06403855
H       -2.99590344      -0.00003819       0.77867997      -0.02015214       0.00000956      -0.04593821
H       -2.99522271       0.00003153      -0.77937491       0.00773635      -0.00000235       0.00573196
O       -0.00000484      -2.41232426      -0.00009100      -0.00000867      -0.10060943       0.06403855
H       -0.00003816      -2.99590347       0.77867998       0.00000956      -0.02015227      -0.04593808
H        0.00003156      -2.99522275      -0.77937490      -0.00000235       0.00773622       0.00573183
15
Properties=species:S:1:pos:R:3:forces:R:3 config_type=SCAN-UO energy=-774330.3648331548 pbc="F F F"
U       -0.00000455      -0.00000459       0.00063615       0.00033687       0.00033673      -4.51727626
O        0.00000676       0.00000672       1.66930251      -0.00016481      -0.00016479       4.39791560
O        0.00012372       0.00012367      -1.73346490      -0.00020519      -0.00020518       0.05292653
O        2.41229944      -0.00000581      -0.00005166       0.06369304      -0.00000785       0.03923066
H        2.99594757      -0.00003941       0.77866791       0.01204718       0.00000930      -0.02960225
H        2.99510273       0.00003033      -0.77940701      -0.00499105      -0.00000217       0.00462744
O       -0.00000578       2.41229938      -0.00005166      -0.00000785       0.06369292       0.03923065
H       -0.00003938       2.99594751       0.77866791       0.00000931       0.01204730      -0.02960210
H        0.00003036       2.99510267      -0.77940700      -0.00000217      -0.00499093       0.00462729
O       -2.41232422      -0.00000487      -0.00009101      -0.06379292      -0.00000830       0.03939457
H       -2.99590344      -0.00003819       0.77867997      -0.01206155       0.00000927      -0.02954085
H       -2.99522271       0.00003153      -0.77937491       0.00514147      -0.00000220       0.00446156
O       -0.00000484      -2.41232426      -0.00009100      -0.00000830      -0.06379265       0.03939456
H       -0.00003816      -2.99590347       0.77867998       0.00000927      -0.01206168      -0.02954072
H        0.00003156      -2.99522275      -0.77937490      -0.00000220       0.00514134       0.00446144
15
Properties=species:S:1:pos:R:3:forces:R:3 config_type=SCAN-UO energy=-774330.4767825985 pbc="F F F"
U       -0.00000455      -0.00000459       0.00063615       0.00034104       0.00034093      -1.79524414
O        0.00000701       0.00000697       1.70625904      -0.00017455      -0.00017455       1.74078171
O        0.00012372       0.00012367      -1.73346490      -0.00019924      -0.00019924       0.02739383
O        2.41229944      -0.00000581      -0.00005166       0.02830854      -0.00000753       0.01635068
H        2.99594757      -0.00003941       0.77866791       0.00463482       0.00000901      -0.01344210
H        2.99510273       0.00003033      -0.77940701      -0.00243816      -0.00000198       0.00300097
O       -0.00000578       2.41229938      -0.00005166      -0.00000754       0.02830840       0.01635067
H       -0.00003938       2.99594751       0.77866791       0.00000901       0.00463495      -0.01344195
H        0.00003036       2.99510267      -0.77940700      -0.00000198      -0.00243803       0.00300081
O       -2.41232422      -0.00000487      -0.00009101      -0.02841147      -0.00000800       0.01651794
H       -2.99590344      -0.00003819       0.77867997      -0.00464795       0.00000896      -0.01338116
H       -2.99522271       0.00003153      -0.77937491       0.00259017      -0.00000201       0.00283410
O       -0.00000484      -2.41232426      -0.00009100      -0.00000800      -0.02841116       0.01651794
H       -0.00003816      -2.99590347       0.77867998       0.00000897      -0.00464809      -0.01338102
H        0.00003156      -2.99522275      -0.77937490      -0.00000201       0.00259004       0.00283397
15
Properties=species:S:1:pos:R:3:forces:R:3 config_type=SCAN-UO energy=-774330.4988078191 pbc="F F F"
U       -0.00000455      -0.00000459       0.00063615       0.00034120       0.00034109       0.48830883
O        0.00000726       0.00000722       1.74321556      -0.00018134      -0.00018135      -0.47779193
O        0.00012372       0.00012367      -1.73346490      -0.00019239      -0.00019239      -0.00449059
O        2.41229944      -0.00000581      -0.00005166      -0.00551679      -0.00000729      -0.00477654
H        2.99594757      -0.00003941       0.77866791      -0.00214273       0.00000870       0.00233980
H        2.99510273       0.00003033      -0.77940701       0.00002820      -0.00000176       0.00109991
O       -0.00000578       2.41229938      -0.00005166      -0.00000729      -0.00551693      -0.00477654
H       -0.00003938       2.99594751       0.77866791       0.00000871      -0.00214261       0.00233995
H        0.00003036       2.99510267      -0.77940700      -0.00000176       0.00002832       0.00109976
O       -2.41232422      -0.00000487      -0.00009101       0.00541166      -0.00000777      -0.00460633
H       -2.99590344      -0.00003819       0.77867997       0.00213049       0.00000866       0.00240080
H       -2.99522271       0.00003153      -0.77937491       0.00012490      -0.00000179       0.00093170
O       -0.00000484      -2.41232426      -0.00009100      -0.00000777       0.00541197      -0.00460633
H       -0.00003816      -2.99590347       0.77867998       0.00000866       0.00213035       0.00240094
H        0.00003156      -2.99522275      -0.77937490      -0.00000179       0.00012477       0.00093157
15
Properties=species:S:1:pos:R:3:forces:R:3 config_type=SCAN-UO energy=-774330.4458575187 pbc="F F F"
U       -0.00000455      -0.00000459       0.00063615       0.00033783       0.00033772       2.40060943
O        0.00000751       0.00000747       1.78017208      -0.00018582      -0.00018582      -2.32679802
O        0.00012372       0.00012367      -1.73346490      -0.00018501      -0.00018500      -0.04044564
O        2.41229944      -0.00000581      -0.00005166      -0.03775621      -0.00000712      -0.02420802
H        2.99594757      -0.00003941       0.77866791      -0.00827904       0.00000840       0.01770005
H        2.99510273       0.00003033      -0.77940701       0.00241756      -0.00000151      -0.00105216
O       -0.00000578       2.41229938      -0.00005166      -0.00000712      -0.03775633      -0.02420803
H       -0.00003938       2.99594751       0.77866791       0.00000840      -0.00827892       0.01770021
H        0.00003036       2.99510267      -0.77940700      -0.00000151       0.00241768      -0.00105231
O       -2.41232422      -0.00000487      -0.00009101       0.03764873      -0.00000761      -0.02403525
H       -2.99590344      -0.00003819       0.77867997       0.00826809       0.00000835       0.01776052
H       -2.99522271       0.00003153      -0.77937491      -0.00226310      -0.00000154      -0.00122094
O       -0.00000484      -2.41232426      -0.00009100      -0.00000761       0.03764896      -0.02403526
H       -0.00003816      -2.99590347       0.77867998       0.00000835       0.00826796       0.01776066
H        0.00003156      -2.99522275      -0.77937490      -0.00000154      -0.00226324      -0.00122107
15
Properties=species:S:1:pos:R:3:forces:R:3 config_type=SCAN-UO energy=-774330.3305364135 pbc="F F F"
U       -0.00000455      -0.00000459       0.00063615       0.00033301       0.00033294       3.99681936
O        0.00000776       0.00000772       1.81712860      -0.00018854      -0.00018854      -3.86307314
O        0.00012372       0.00012367      -1.73346490      -0.00017757      -0.00017757      -0.07884141
O        2.41229944      -0.00000581      -0.00005166      -0.06832874      -0.00000698      -0.04197582
H        2.99594757      -0.00003941       0.77866791      -0.01381807       0.00000810       0.03252875
H        2.99510273       0.00003033      -0.77940701       0.00469783      -0.00000123      -0.00337857
O       -0.00000578       2.41229938      -0.00005166      -0.00000698      -0.06837943      -0.04197618
H       -0.00003938       2.99594751       0.77866791       0.00000810      -0.01378176       0.03258124
H        0.00003036       2.99510267      -0.77940700      -0.00000122       0.00473351      -0.00343061
O       -2.41232422      -0.00000487      -0.00009101       0.06821885      -0.00000744      -0.04180087
H       -2.99590344      -0.00003819       0.77867997       0.01380820       0.00000803       0.03258905
H       -2.99522271       0.00003153      -0.77937491      -0.00454236      -0.00000128      -0.00354813
O       -0.00000484      -2.41232426      -0.00009100      -0.00000744       0.06826974      -0.04180123
H       -0.00003816      -2.99590347       0.77867998       0.00000803       0.01377184       0.03264157
H        0.00003156      -2.99522275      -0.77937490      -0.00000128      -0.00457810      -0.00360021
15
Properties=species:S:1:pos:R:3:forces:R:3 config_type=SCAN-UO energy=-774330.1635369732 pbc="F F F"
U       -0.00000455      -0.00000459       0.00063615       0.00032628       0.00032619       5.32187612
O        0.00000801       0.00000797       1.85408512      -0.00018961      -0.00018963      -5.13147336
O        0.00012372       0.00012367      -1.73346490      -0.00017006      -0.00017006      -0.11814357
O        2.41229944      -0.00000581      -0.00005166      -0.09735947      -0.00000686      -0.05817498
H        2.99594757      -0.00003941       0.77866791      -0.01867686       0.00000777       0.04692559
H        2.99510273       0.00003033      -0.77940701       0.00694805      -0.00000095      -0.00595784
O       -0.00000578       2.41229938      -0.00005166      -0.00000686      -0.09735786      -0.05817499
H       -0.00003938       2.99594751       0.77866791       0.00000778      -0.01867792       0.04692406
H        0.00003036       2.99510267      -0.77940700      -0.00000095       0.00694701      -0.00595630
O       -2.41232422      -0.00000487      -0.00009101       0.09724774      -0.00000738      -0.05799821
H       -2.99590344      -0.00003819       0.77867997       0.01866809       0.00000774       0.04698565
H       -2.99522271       0.00003153      -0.77937491      -0.00679167      -0.00000097      -0.00612796
O       -0.00000484      -2.41232426      -0.00009100      -0.00000738       0.09724630      -0.05799821
H       -0.00003816      -2.99590347       0.77867998       0.00000775       0.01866914       0.04698409
H        0.00003156      -2.99522275      -0.77937490      -0.00000096      -0.00679064      -0.00612640
15
Properties=species:S:1:pos:R:3:forces:R:3 config_type=SCAN-UO energy=-774329.9540086988 pbc="F F F"
U       -0.00000455      -0.00000459       0.00063615       0.00031844       0.00031834       6.41468561
O        0.00000826       0.00000822       1.89104164      -0.00018942      -0.00018944      -6.17130572
O        0.00012372       0.00012367      -1.73346490      -0.00016268      -0.00016267      -0.15771391
O        2.41229944      -0.00000581      -0.00005166      -0.12473917      -0.00000671      -0.07282100
H        2.99594757      -0.00003941       0.77866791      -0.02294753       0.00000740       0.06072895
H        2.99510273       0.00003033      -0.77940701       0.00910264      -0.00000070      -0.00866433
O       -0.00000578       2.41229938      -0.00005166      -0.00000672      -0.12473705      -0.07282100
H       -0.00003938       2.99594751       0.77866791       0.00000740      -0.02294904       0.06072678
H        0.00003036       2.99510267      -0.77940700      -0.00000070       0.00910116      -0.00866217
O       -2.41232422      -0.00000487      -0.00009101       0.12462600      -0.00000742      -0.07264274
H       -2.99590344      -0.00003819       0.77867997       0.02293973       0.00000750       0.06078895
H       -2.99522271       0.00003153      -0.77937491      -0.00894559      -0.00000059      -0.00883504
O       -0.00000484      -2.41232426      -0.00009100      -0.00000742       0.12462384      -0.07264273
H       -0.00003816      -2.99590347       0.77867998       0.00000750       0.02294123       0.06078675
H        0.00003156      -2.99522275      -0.77937490      -0.00000059      -0.00894411      -0.00883287
15
Properties=species:S:1:pos:R:3:forces:R:3 config_type=SCAN-UO energy=-774329.7097772984 pbc="F F F"
U       -0.00000455      -0.00000459       0.00063615       0.00030984       0.00030974       7.30767726
O        0.00000851       0.00000847       1.92799817      -0.00018813      -0.00018815      -7.01455240
O        0.00012372       0.00012367      -1.73346490      -0.00015549      -0.00015549      -0.19687829
O        2.41229944      -0.00000581      -0.00005166      -0.15049960      -0.00000662      -0.08598031
H        2.99594757      -0.00003941       0.77866791      -0.02663138       0.00000704       0.07392752
H        2.99510273       0.00003033      -0.77940701       0.01117202      -0.00000043      -0.01148053
O       -0.00000578       2.41229938      -0.00005166      -0.00000662      -0.15049662      -0.08598031
H       -0.00003938       2.99594751       0.77866791       0.00000704      -0.02663351       0.07392446
H        0.00003036       2.99510267      -0.77940700      -0.00000043       0.01116993      -0.01147750
O       -2.41232422      -0.00000487      -0.00009101       0.15038508      -0.00000748      -0.08580087
H       -2.99590344      -0.00003819       0.77867997       0.02662442       0.00000725       0.07398758
H       -2.99522271       0.00003153      -0.77937491      -0.01101448      -0.00000023      -0.01165182
O       -0.00000484      -2.41232426      -0.00009100      -0.00000748       0.15038223      -0.08580086
H       -0.00003816      -2.99590347       0.77867998       0.00000725       0.02662655       0.07398451
H        0.00003156      -2.99522275      -0.77937490      -0.00000022      -0.01101240      -0.01164878
15
Properties=species:S:1:pos:R:3:forces:R:3 config_type=SCAN-UO energy=-774329.437568925 pbc="F F F"
U       -0.00000455      -0.00000459       0.00063615       0.00030070       0.00030062       8.02875482
O        0.00000876       0.00000873       1.96495469      -0.00018602      -0.00018604      -7.68947036
O        0.00012372       0.00012367      -1.73346490      -0.00014856      -0.00014855      -0.23530072
O        2.41229944      -0.00000581      -0.00005166      -0.17465681      -0.00000656      -0.09771126
H        2.99594757      -0.00003941       0.77866791      -0.02975420       0.00000668       0.08648098
H        2.99510273       0.00003033      -0.77940701       0.01315009      -0.00000014      -0.01436316
O       -0.00000578       2.41229938      -0.00005166      -0.00000656      -0.17465237      -0.09771125
H       -0.00003938       2.99594751       0.77866791       0.00000669      -0.02975750       0.08647628
H        0.00003036       2.99510267      -0.77940700      -0.00000014       0.01314688      -0.01435851
O       -2.41232422      -0.00000487      -0.00009101       0.17454134      -0.00000756      -0.09753094
H       -2.99590344      -0.00003819       0.77867997       0.02974796       0.00000699       0.08654128
H       -2.99522271       0.00003153      -0.77937491      -0.01299227       0.00000015      -0.01453507
O       -0.00000484      -2.41232426      -0.00009100      -0.00000756       0.17453704      -0.09753092
H       -0.00003816      -2.99590347       0.77867998       0.00000699       0.02975125       0.08653655
H        0.00003156      -2.99522275      -0.77937490       0.00000015      -0.01298906      -0.01453040
15
Properties=species:S:1:pos:R:3:forces:R:3 config_type=SCAN-UO energy=-774329.1431467358 pbc="F F F"
U       -0.00000455      -0.00000459       0.00063615       0.00029150       0.00029141       8.60195107
O        0.00000901       0.00000898       2.00191121      -0.00018320      -0.00018321      -8.21997375
O        0.00012372       0.00012367      -1.73346490      -0.00014189      -0.00014189      -0.27276939
O        2.41229944      -0.00000581      -0.00005166      -0.19720684      -0.00000689      -0.10805706
H        2.99594757      -0.00003941       0.77866791      -0.03236523       0.00000661       0.09833245
H        2.99510273       0.00003033      -0.77940701       0.01502043       0.00000042      -0.01726391
O       -0.00000578       2.41229938      -0.00005166      -0.00000689      -0.19721826      -0.10805715
H       -0.00003938       2.99594751       0.77866791       0.00000661      -0.03235678       0.09834445
H        0.00003036       2.99510267      -0.77940700       0.00000042       0.01502868      -0.01727575
O       -2.41232422      -0.00000487      -0.00009101       0.19709114      -0.00000729      -0.10787614
H       -2.99590344      -0.00003819       0.77867997       0.03235918       0.00000646       0.09839366
H       -2.99522271       0.00003153      -0.77937491      -0.01486289       0.00000026      -0.01743701
O       -0.00000484      -2.41232426      -0.00009100      -0.00000729       0.19710269      -0.10787622
H       -0.00003816      -2.99590347       0.77867998       0.00000646       0.03235073       0.09840563
H        0.00003156      -2.99522275      -0.77937490       0.00000026      -0.01487114      -0.01744883
15
Properties=species:S:1:pos:R:3:forces:R:3 config_type=SCAN-UO energy=-774328.8314611301 pbc="F F F"
U       -0.00000455      -0.00000459       0.00063615       0.00028151       0.00028144       9.04785344
O        0.00000927       0.00000923       2.03886773      -0.00017985      -0.00017986      -8.62633113
O        0.00012372       0.00012367      -1.73346490      -0.00013545      -0.00013545      -0.30932323
O        2.41229944      -0.00000581      -0.00005166      -0.21825221      -0.00000674      -0.11710170
H        2.99594757      -0.00003941       0.77866791      -0.03443530       0.00000615       0.10952202
H        2.99510273       0.00003033      -0.77940701       0.01681315       0.00000062      -0.02019437
O       -0.00000578       2.41229938      -0.00005166      -0.00000674      -0.21820109      -0.11710139
H       -0.00003938       2.99594751       0.77866791       0.00000615      -0.03447315       0.10946834
H        0.00003036       2.99510267      -0.77940700       0.00000062       0.01677633      -0.02014144
O       -2.41232422      -0.00000487      -0.00009101       0.21813581      -0.00000756      -0.11692042
H       -2.99590344      -0.00003819       0.77867997       0.03443003       0.00000633       0.10958327
H       -2.99522271       0.00003153      -0.77937491      -0.01665537       0.00000073      -0.02036769
O       -0.00000484      -2.41232426      -0.00009100      -0.00000756       0.21808486      -0.11692010
H       -0.00003816      -2.99590347       0.77867998       0.00000634       0.03446785       0.10952958
H        0.00003156      -2.99522275      -0.77937490       0.00000073      -0.01661855      -0.02031475
15
Properties=species:S:1:pos:R:3:forces:R:3 config_type=SCAN-UO energy=-774328.5067631333 pbc="F F F"
U       -0.00000455      -0.00000459       0.00063615       0.00027149       0.00027140       9.38368569
O        0.00000952       0.00000948       2.07582425      -0.00017605      -0.00017607      -8.92605697
O        0.00012372       0.00012367      -1.73346490      -0.00012927      -0.00012927      -0.34483727
O        2.41229944      -0.00000581      -0.00005166      -0.23782131      -0.00000689      -0.12493441
H        2.99594757      -0.00003941       0.77866791      -0.03601808       0.00000593       0.12002200
H        2.99510273       0.00003033      -0.77940701       0.01849781       0.00000101      -0.02309513
O       -0.00000578       2.41229938      -0.00005166      -0.00000689      -0.23783493      -0.12493452
H       -0.00003938       2.99594751       0.77866791       0.00000593      -0.03600798       0.12003630
H        0.00003036       2.99510267      -0.77940700       0.00000101       0.01850763      -0.02310920
O       -2.41232422      -0.00000487      -0.00009101       0.23770458      -0.00000757      -0.12475300
H       -2.99590344      -0.00003819       0.77867997       0.03601334       0.00000598       0.12008357
H       -2.99522271       0.00003153      -0.77937491      -0.01834004       0.00000102      -0.02326884
O       -0.00000484      -2.41232426      -0.00009100      -0.00000757       0.23771831      -0.12475310
H       -0.00003816      -2.99590347       0.77867998       0.00000598       0.03600324       0.12009784
H        0.00003156      -2.99522275      -0.77937490       0.00000102      -0.01834987      -0.02328289
15
Properties=species:S:1:pos:R:3:forces:R:3 config_type=SCAN-UO energy=-774328.1727027061 pbc="F F F"
U       -0.00000455      -0.00000459       0.00063615       0.00026133       0.00026125       9.62651198
O        0.00000977       0.00000973       2.11278078      -0.00017186      -0.00017188      -9.13496395
O        0.00012372       0.00012367      -1.73346490      -0.00012324      -0.00012324      -0.38004653
O        2.41229944      -0.00000581      -0.00005166      -0.25596324      -0.00000702      -0.13147731
H        2.99594757      -0.00003941       0.77866791      -0.03710704       0.00000569       0.12983986
H        2.99510273       0.00003033      -0.77940701       0.02013878       0.00000137      -0.02607798
O       -0.00000578       2.41229938      -0.00005166      -0.00000702      -0.25592233      -0.13147703
H       -0.00003938       2.99594751       0.77866791       0.00000570      -0.03713749       0.12979682
H        0.00003036       2.99510267      -0.77940700       0.00000137       0.02010924      -0.02603561
O       -2.41232422      -0.00000487      -0.00009101       0.25584657      -0.00000763      -0.13129600
H       -2.99590344      -0.00003819       0.77867997       0.03710261       0.00000565       0.12990202
H       -2.99522271       0.00003153      -0.77937491      -0.01998130       0.00000134      -0.02625224
O       -0.00000484      -2.41232426      -0.00009100      -0.00000763       0.25580571      -0.13129571