15
Properties=species:S:1:pos:R:3:forces:R:3 config_type=NMS-300 energy=-774329.9391676547 pbc="F F F"
U       -0.00063615       0.00088410      -0.02542710      -0.11879551      -0.15512065       1.06393501
O       -0.05432833       0.00480370       1.72000763       0.10786383      -0.02656318      -0.68971788
O        0.09298898       0.03057782      -1.74067875      -0.09752119      -0.02576151      -0.58354437
O        2.48969183      -0.08328573       0.02921305      -0.20454252      -0.03112275       1.63583015
H        2.88930436      -0.07818756       0.95305401      -0.21725910      -0.00844521      -1.63436257
H        3.19289649      -0.26358038      -0.62330913      -0.11000488       0.09421450       0.20576712
O       -0.08800318       2.40021943       0.08109517       0.10762781       0.49413196      -0.51370866
H       -0.33326256       2.88940815       0.88452532       0.05255048       0.05635574       0.05597058
H        0.04585450       3.08256900      -0.62185144      -0.11632420      -0.55345632       0.45288429
O       -2.50511710       0.10502273       0.11161895      -2.63060001      -0.52112087       1.13481597
H       -2.94067169      -0.04448325       1.03460266       1.17086435       0.38879925      -1.99311002
H       -3.34343232       0.12302753      -0.48168392       2.08887098       0.02833091       0.88632888
O        0.08107475      -2.44799314       0.09247061       1.16926964      -1.05541109       2.31393207
H        0.48304200      -2.93928080       0.93307565      -1.34266737       1.23984108      -2.54665416
H       -0.10453095      -3.12845150      -0.58392284       0.14055247       0.07731460       0.21215816
15
Properties=species:S:1:pos:R:3:forces:R:3 config_type=NMS-600 energy=-774329.1134950798 pbc="F F F"
U       -0.02227292      -0.00549736       0.05052398       1.75001759       0.62318276      -3.64264816
O        0.10604203      -0.04837694       1.72223544      -0.16978134      -0.21330262       3.53615331
O        0.09768209       0.20923536      -1.65116380      -0.43557323      -0.62164363      -0.69094780
O        2.46366838       0.24193562      -0.17232075       3.74098101      -0.71655557      -1.13062577
H        3.21360047       0.49974066       0.51191145      -2.17874899      -0.75509795      -1.81285789
H        3.02838492      -0.07779937      -1.04341970      -2.07613455       1.25840725       3.09816176
O        0.24794908       2.47237097      -0.25687137      -1.13538051       1.74553722       1.30324465
H       -0.15745433       3.09897570       0.46883013       1.34654105      -1.25237182      -2.20845801
H        0.49026656       3.01540109      -1.07325473      -0.51951638      -0.83906399       1.48436525
O       -2.35814904      -0.22281970      -0.14489730      -3.42169363      -0.64113748       0.50827167
H       -3.20593778      -0.48220533       0.42604031       2.57926298       0.78105345      -1.34196015
H       -2.73930076      -0.16088354      -1.06013377       0.34960671      -0.01897296       0.71506007
O       -0.23130755      -2.54803767      -0.11868122      -0.14849395      -0.67463182       1.20029182
H       -0.44122411      -3.06020220       0.73740881       0.51122584       0.70677808      -1.96686198
H       -0.10592948      -3.19843180      -0.86054274      -0.19503411       0.61925056       0.94566755
15
Properties=species:S:1:pos:R:3:forces:R:3 config_type=NMS-1000 energy=-774325.3165448427 pbc="F F F"
U       -0.00198033       0.00339736       0.00462553       1.38890154       0.18348225       0.36535764
O       -0.01932500      -0.04986457       1.83162810      -0.06533422       0.06435600      -4.11485091
O       -0.21605959      -0.06129281      -1.78055527       0.76807793       0.21039556       3.11056284
O        2.46763351      -0.21931118       0.03613104       4.25538650      -4.33015970       0.25838853
H        3.06399450      -0.62653085       0.85022597      -2.43371872       1.93625160      -2.14364483
H        3.03629062      -0.81043500      -0.68474726      -2.30663619       2.50112932       1.81389826
O       -0.20824160       2.53799167      -0.00461106      -4.21039797       1.07973913      -2.50044066
H       -0.20595117       3.21589868       0.72470481      -0.06418766      -0.62238527      -0.73850737
H       -1.38278280       2.99408594      -0.85830302       4.47384276      -1.40218567       3.18185611
O       -2.25232981       0.30782988      -0.10438420      -2.44307937      -0.78629159       0.67116451
H       -2.69855646       0.13545846       0.77020293       0.07738551       0.45399000      -0.86724607
H       -2.95813733       0.18863008      -0.80397752       0.90858857       0.16131431       0.66953214
O        0.32613717      -2.50145049      -0.04319197      -3.57341200       0.28818517       5.18490385
H       -0.34017890      -2.93974645       0.80283678       3.22957668       1.41801329      -3.83534943
H        0.42009155      -3.17172872      -0.70216797      -0.00836884      -1.15765165      -1.05595590
15
Properties=species:S:1:pos:R:3:forces:R:3 config_type=NMS-300 energy=-774329.8596745109 pbc="F F F"
U        0.00487177       0.00993520      -0.00998675      -0.65746792      -0.46872528      -1.45166085
O        0.04955592      -0.03076824       1.71067743       0.02276399       0.24681072       0.90050035
O       -0.09621309      -0.12795040      -1.73920139       0.20229291       0.27431177       0.28099437
O        2.38623134      -0.03837240       0.08905381       0.98636349      -0.14103807      -0.12473029
H        2.99483218       0.04434570       0.83995930      -0.35449453       0.12836199       0.71888581
H        3.05090048      -0.21863242      -0.59698009      -0.32300065       0.00417988      -0.68936389
O       -0.04574980       2.42125392       0.03740783       0.23202608       2.03857303       1.75674146
H        0.13373904       2.71636048       1.03152450      -0.64506245      -0.16420844      -3.07175331
H       -0.21790711       3.24900999      -0.55756197       0.47982774      -1.90138618       1.58774786
O       -2.40618296       0.05398644       0.00045176      -0.68737930      -0.57915321       2.03201894
H       -3.03399873      -0.16799561       0.76186245       1.12803033       0.44776159      -1.14404744
H       -2.98096879       0.13981595      -0.75861485      -0.44062159       0.08392534      -0.84154672
O        0.00965114      -2.40969211       0.01138583       1.47336760      -2.31186332      -0.83099214
H        0.19848702      -2.98670463       0.80051965      -0.41658213       0.76155819      -0.53533837
H        0.33555283      -3.02680092      -0.74850903      -1.00191823       1.58019416       1.41207214
15
Properties=species:S:1:pos:R:3:forces:R:3 config_type=NMS-1000 energy=-774326.3093866535 pbc="F F F"
U        0.00826759      -0.00757038       0.02504475      -2.10681421      -0.16352561      -1.76001338
O       -0.16692375       0.05758503       1.70587939       0.16021220      -0.17982969       2.80695513
O        0.20761394       0.14800043      -1.67596950      -0.41077164      -0.25172883      -1.21994249
O        2.20106248       0.06447319      -0.21026773       3.70662660      -0.25299340      -1.28893657
H        2.78854595       0.12974157       0.57312399       0.27775371      -0.10161514      -0.48913969
H        2.77319879      -0.05632120      -1.06897287      -1.24816585       0.37523446       2.19329029
O        0.01145470       2.51982973      -0.11445689       3.14588094       0.86656500      -5.06812916
H        0.10724954       3.17191302       0.55315670      -0.14879156       1.17187426       1.75021921
H        0.64674687       3.05532622      -0.94411361      -3.01799002      -2.56074583       3.41251970
O       -2.34852169      -0.11364243       0.05718644      -0.67425767       3.77909526      -4.03543347
H       -2.99357067      -0.31266597       0.76857049      -0.35090946       0.64877170      -0.52200394
H       -2.71942764       0.87077613      -0.88785515       0.61161115      -4.15494293       4.14476614
O       -0.05110910      -2.58997689      -0.05130090      -0.07959589      -2.85955737      -0.86673589
H       -0.38167478      -3.19653272       0.71790556       0.88610830       1.39389215      -1.98136077
H        0.14420766      -3.25564387      -0.87489164      -0.75064463       2.29159565       2.92552586
15
Properties=species:S:1:pos:R:3:forces:R:3 config_type=NMS-600 energy=-774326.9166969106 pbc="F F F"
U       -0.01563284      -0.00057511      -0.01289234       1.28424390       0.12413777       0.84233880
O        0.18829531       0.02824288       1.70587082      -0.40579059       0.15652016       0.26781734
O       -0.14034508      -0.13799464      -1.71798690      -0.00582543       0.20943577      -1.13381095
O        2.56947506      -0.21513026       0.12159224       0.85754468       1.41790397      -2.25924889
H        2.93174884      -0.51620220       0.98337139       0.45227618       0.44619308      -0.77280571
H        3.28167290       0.20626802      -0.56110950      -2.04854535      -1.70816500       2.85524402
O       -0.21327098       2.45023812       0.07961474       0.43099791       1.43657609       1.65925216
H       -0.14622281       2.90798570       1.00106481      -0.15393307      -0.91249075      -2.22964193
H       -0.18595462       3.18088645      -0.59179432      -0.09607614      -0.71887191       0.62187891
O       -2.39563214       0.20297948      -0.02849664      -3.58740128      -0.09142395      -0.17040553
H       -3.09079587       0.56291208       0.69278734       2.07191406      -1.22385736      -2.39015971
H       -2.94267015      -0.12106642      -0.87096975       1.35117497       1.14691359       2.57102549
O        0.21791020      -2.34529989       0.00405547      -0.90457075      -3.35523079      -0.06117437
H       -0.63274059      -2.92237136       0.77848889       4.31024677       1.57469881      -3.89283274
H        0.88559598      -2.88568660      -0.84477274      -3.56073978       1.49314270       4.09554612
15
Properties=species:S:1:pos:R:3:forces:R:3 config_type=NMS-1000 energy=-774326.4827376298 pbc="F F F"
U       -0.00800068      -0.00090539      -0.02201565       1.00372037       0.63444088       4.30232091
O        0.20414155       0.27128926       1.78958335      -0.66633617      -1.18267104      -4.44525382
O       -0.04766468      -0.28051845      -1.76331468      -0.28059186       0.46347969       0.99109772
O        2.36707613      -0.37885637       0.11530413       1.95927382      -0.31985917       1.35109060
H        2.67128274      -0.21405969       1.12694088      -0.18452732      -0.71906328      -3.55664522
H        3.07510012      -0.82157062      -0.52616992      -1.71985933       1.48874300       2.31884597
O       -0.35686608       2.34819198       0.25515248      -2.07466822       1.40278609       4.30192847
H       -0.92738753       2.94640308       1.04685652       2.65707739      -2.51919905      -3.43200170
H       -0.38775470       2.83129604      -0.54579895      -0.27065548       1.62253365      -1.52964198
O       -2.39025201       0.41461655       0.00378489      -3.60940204      -1.73241830      -1.76892158
H       -3.14856175       0.63193165       0.72932205       2.30736451      -0.91576601      -2.60104520
H       -2.84792954      -0.04576969      -0.92421944       1.22991184       2.12126315       4.07423138
O        0.35887244      -2.34698201      -0.10049735       2.44098537      -1.05814133       4.62865594
H        1.07627821      -2.95127307       0.70546186      -3.45445090       2.13553624      -4.40260053
H        0.22349711      -2.60124926      -1.01941216       0.66963317      -1.42299450      -0.23155560
15
Properties=species:S:1:pos:R:3:forces:R:3 config_type=NMS-300 energy=-774329.7144294912 pbc="F F F"
U        0.00714304       0.01434962       0.05125733      -0.42235541      -0.93788494      -0.75588472
O       -0.06215430      -0.10266189       1.79423692       0.16601774       0.33164088      -0.74889289
O       -0.04223398      -0.11385841      -1.68948816       0.24947727       0.48524242       0.69419520
O        2.47966526      -0.05761949      -0.17887623       0.06555043      -0.21082974      -0.13444435
H        3.17888420      -0.13401366       0.50621159      -0.31097547       0.07972100      -0.35959464
H        2.91712413      -0.19589815      -1.05106786      -0.20304190       0.15755882       0.61296920
O       -0.04752727       2.37022988      -0.18806672      -0.90633898       1.65120643      -0.81431715
H       -0.08995550       2.99806908       0.58427842       0.03372720      -0.39007774      -0.99470112
H       -0.36885948       2.86628524      -1.02956283       0.84598276      -0.88983547       1.94477433
O       -2.47924237       0.08561601      -0.20183751      -2.22160557      -1.33245217       2.19176753
H       -3.02245907      -0.36759450       0.62339909       1.54515484       1.83810888      -3.19025617
H       -3.14631958       0.34045170      -0.92364930       1.17718927      -0.63343413       1.41495310
O        0.06065032      -2.36397471      -0.17154548       0.47344797      -2.20385552       0.80375801
H        0.25911358      -3.13077411       0.45720316      -0.37674884       1.52456801      -0.47274619
H        0.03261486      -2.86192139      -1.01272809      -0.11997030       0.52874943      -0.19224691
15
Properties=species:S:1:pos:R:3:forces:R:3 config_type=NMS-300 energy=-774329.918203775 pbc="F F F"
U       -0.00813224      -0.00360676       0.00771887       0.70262679       0.45587546      -0.12744936
O        0.13012148      -0.03659378       1.74764477      -0.29144641       0.02735537      -0.79160845
O       -0.16106242       0.01554534      -1.73698352       0.32009870       0.01030002       0.94630539
O        2.55331727      -0.22287370       0.05071418       0.78813389       0.12170441      -1.03080146
H        3.07566734      -0.27254516       0.88541115      -0.30205366       0.03801394      -0.65456646
H        3.22187203      -0.23101289      -0.71675322      -1.28590682       0.03401562       1.59860363
O       -0.19334006       2.40020824      -0.02587519      -1.07684704       2.22686096      -1.05062888
H       -0.43178446       3.14666360       0.58411641       0.52795414      -1.05500342       0.33062608
H       -0.44750554       2.89082477      -0.86683605       0.64351883      -1.12884079       0.62867116
O       -2.42105941       0.20906996      -0.10783407      -1.36642183       0.55775145      -1.32651295
H       -3.07948435       0.18711716       0.61201154       0.17746113      -0.04151358       0.04901142
H       -2.97479943       0.47863206      -0.92336106       1.26876657      -0.67792127       1.48202341
O        0.22119895      -2.33197773       0.00007399       0.13508256      -2.22721655      -0.87593519
H        0.02890277      -2.98883061       0.72492786       0.32769678       0.68574152      -0.70318539
H        0.48330926      -2.88614743      -0.81378772      -0.57090193       0.96879343       1.52378062
15
Properties=species:S:1:pos:R:3:forces:R:3 config_type=NMS-1000 energy=-774324.2874250143 pbc="F F F"
U        0.01619436      -0.02381784       0.00018675      -1.90345967       1.56614743       5.66538767
O       -0.25247841       0.24706418       1.78765100       1.11499679      -0.92828371      -3.79056471
O        0.03412772       0.02034249      -1.71651772       0.17420768      -0.30422403      -1.49016133
O        2.39665584       0.11892331      -0.12898205       1.60710606       1.45370791       3.84588761
H        2.92739853       0.49442961       0.73418506      -1.66801030      -1.46589119      -2.93612331
H        3.02566623       0.22820952      -0.84594552       0.35838502       0.00871007      -0.66392788
O        0.14779084       2.41519927       0.05144785       0.31471423       3.68433830       0.72038662
H        0.50565716       2.99061521       0.84377534      -0.99868640      -1.82104923      -1.76975489
H       -0.13889359       3.17482806      -0.57645311       0.59720145      -1.92416934       0.92490822
O       -2.41684880      -0.19752674       0.08274360      -2.09781171       3.76331241       3.35594834
H       -3.06756226       0.60650870       0.86105280       2.74710908      -3.86045150      -3.67672930
H       -2.94912176      -0.35248950      -0.71438560      -0.45271666       0.21827884       0.09752453
O       -0.13617681      -2.33201223      -0.05087960      -0.07976345      -3.35124246      -2.34094176
H       -1.08979840      -3.29844351       0.46822677       3.97410335       3.28521236      -2.40398707
H        0.57354790      -2.54679453      -1.05807864      -3.68786086      -0.32434846       4.45976642
15
Properties=species:S:1:pos:R:3:forces:R:3 config_type=NMS-300 energy=-774329.8870358703 pbc="F F F"
U        0.00787418      -0.00122145      -0.00709719      -0.61152023      -0.02768294      -0.04577723
O        0.00825379      -0.02609807       1.71465547       0.06096277       0.01374990       0.87853344
O       -0.13892797       0.07701018      -1.71958611       0.33181320      -0.08556777      -0.91127218
O        2.37032109       0.01551061       0.07709172       2.23369736      -0.66001862      -1.49430371
H        2.99467749      -0.00536128       0.82532377      -0.34751018       0.13907100       0.38478894
H        3.01549814      -0.18269662      -0.68379772      -1.37273552       0.47560418       0.99411009
O       -0.00973161       2.39118311       0.01650737       0.29619946       0.03162289       1.81447114
H        0.13988868       3.07403555       0.73434600      -0.25321790      -0.80124885      -1.13836364
H       -0.02010226       2.80113583      -0.84136454      -0.03053013       0.96207702      -0.82082704
O       -2.36216445       0.00715875      -0.05389900      -1.53359327      -0.07778010       1.73662931
H       -2.70367054       0.11585046       0.91429397       0.07108703      -0.36751033      -2.54352499
H       -3.11665883      -0.20419849      -0.69191491       1.11707929       0.45493680       1.23291641
O       -0.01700889      -2.41377533       0.05658744       0.99522219      -2.90467262       1.06448908
H        0.27932082      -3.05678846       0.82282273      -0.86602169       1.93442899      -1.66909262
H       -0.07367846      -3.06495761      -0.69599654      -0.09078605       0.91589551       0.51510736
15
Properties=species:S:1:pos:R:3:forces:R:3 config_type=NMS-300 energy=-774329.4023458912 pbc="F F F"
U       -0.00486010      -0.00340007      -0.02311208       0.48781751       0.55672552       0.39359070
O        0.02638341       0.00303834       1.70789637      -0.01240952      -0.11383028       0.26957633
O        0.00548565      -0.00138671      -1.73381871      -0.09825006      -0.01742397      -1.05657067
O        2.40610893       0.18139233       0.07579264       2.73733523       0.11287415       0.43554799
H        2.77840571      -0.03938109       1.01186717      -0.36372006       0.67513654      -2.35952067
H        3.20831180       0.44921581      -0.56621742      -2.43342017      -0.94454914       2.10051719
O        0.14921515       2.49789526       0.06146044       2.18643129       3.07997301       3.32352050
H        0.57221081       2.99568884       0.97625032      -1.87729950      -2.33102134      -3.36740135
H        0.23922098       3.30102113      -0.52901665      -0.40193353      -1.34870734       0.10781631
O       -2.36544513      -0.15726140       0.06119520      -1.30742693      -0.52488958      -0.02821490
H       -2.75095082      -0.44806723       0.91777625       0.04367250       0.29955254      -0.36778363
H       -3.10517866      -0.26816828      -0.59765099       0.89081134       0.23971089       0.53009871
O       -0.18728636      -2.46115392       0.08739257      -0.00674510      -1.50954247      -1.52760976
H       -0.07111543      -2.98360086       0.89483302      -0.00153153       0.06124795       0.35708503
H       -0.27101417      -3.19418574      -0.62323368       0.15693289       1.76454203       1.19227097
15
Properties=species:S:1:pos:R:3:forces:R:3 config_type=NMS-600 energy=-774327.547548764 pbc="F F F"
U        0.00215947       0.01838161       0.03312095      -0.17068481      -2.94141676       0.15696928
O       -0.00091826       0.04356106       1.77108626      -0.01148346       0.04146006       0.15589916
O       -0.05675298      -0.05848532      -1.68031150       0.05468762       0.16484725      -1.15149087
O        2.42527173      -0.00414464      -0.16712997       3.78872798       1.83466542       3.63610094
H        2.69125773       0.51678603       0.82272804      -0.59345189      -2.32956795      -4.19913290
H        3.38656727      -0.24021661      -0.56753924      -3.18043096       0.70079642       1.08896566
O        0.00707927       2.21988011      -0.04599560       1.23859867       5.18763175      -2.96413897
H       -0.43537996       3.01223726       0.49094825       1.50637647      -1.89770674      -1.69263547
H        0.54514523       2.59749358      -1.03045891      -2.64001626      -0.95857171       4.35880661
O       -2.40938097       0.00235089      -0.15529266       1.29048048      -0.08223350       2.33428656
H       -2.82459911      -0.16725666       0.73709116      -0.39871845       0.19538601      -1.66357389
H       -2.97030055      -0.05632806      -0.92600623      -0.95443474      -0.16373827      -0.26448023
O       -0.04265277      -2.45072865      -0.15242136       2.66452378      -1.58440970       4.42558245
H        0.50326262      -3.12063149       0.58672876      -2.51209976       2.63586090      -3.27104259
H       -0.17550227      -2.95884848      -0.94341225      -0.08505258      -0.80161816      -0.94907676
15
Properties=species:S:1:pos:R:3:forces:R:3 config_type=NMS-300 energy=-774329.5209176363 pbc="F F F"
U        0.01681690       0.02323123      -0.01837638      -1.23061075      -1.64334153      -1.83005600
O       -0.16914524      -0.11823328       1.67484793       0.20200635       0.23378609       1.70923606
O        0.02988697      -0.10142309      -1.74633030       0.18029639       0.44096863       0.02487792
O        2.37702713       0.02216484       0.00725039       1.30946854      -2.62362253       4.10893959
H        2.85534556      -0.56142536       0.86311509      -1.48823432       2.63514507      -3.82326151
H        2.98242464       0.08608191      -0.74161787       0.59378573      -0.14394015      -0.12845531
O       -0.01039454       2.38187768       0.07541851       0.24305473      -1.74004290      -2.60368490
H       -0.08289664       2.92379380       0.80957095      -0.26962358       2.01328403       2.98412434
H        0.01900125       2.97923324      -0.68242519       0.01920462       0.22865116      -0.43333281
O       -2.47633921       0.02327206       0.11851023      -0.07782701      -0.12213583       0.80713458
H       -2.83013135       0.01785802       1.04496289       0.12345873       0.00685583      -0.97373136
H       -3.24473308      -0.10103862      -0.47775035       0.40150529       0.10108262       0.18157583
O        0.02432175      -2.50406712       0.08437079      -0.30139470       0.47673288       1.19006710
H       -0.20941495      -2.98531635       0.92903312       0.37102409       0.35402519      -1.33424483
H        0.10850983      -3.13298523      -0.64881368      -0.07278741      -0.21603329       0.12398931
15
Properties=species:S:1:pos:R:3:forces:R:3 config_type=NMS-600 energy=-774328.9022552852 pbc="F F F"
U        0.00467936       0.00578159       0.05079163      -1.60113087      -0.57177803      -4.02505914
O        0.14317086      -0.01502655       1.74804162      -0.00569842       0.03373172       2.27661738
O       -0.07251966      -0.09137509      -1.70665447       0.25431806       0.42390983       1.17170176
O        2.26530979       0.18795155      -0.10453848       6.14143757       3.29102568      -0.35147205
H        2.94045815       0.62267530       0.62983779      -2.54040945      -1.82542358      -1.95353687
H        2.85299840       0.50752651      -0.94842311      -2.20005685      -1.47280722       2.26161254
O        0.24516996       2.34148144      -0.13035787      -0.44245400       2.37590786       0.04345773
H       -0.04598946       3.08221413       0.51764202       0.78111648      -1.39688298      -1.56037487
H        0.45862336       2.74495823      -1.02698580      -0.49801001      -0.22271530       1.46967941
O       -2.39193645      -0.20869227      -0.23619464      -2.85462660      -1.15935886      -1.51142072
H       -3.01423927      -0.42431352       0.52153644       0.71731571       0.36744233      -1.12330062
H       -2.95308673      -0.45486537      -1.12190392       1.99598810       0.94085381       2.99588535
O       -0.26517100      -2.31944063      -0.19719181       1.66907336      -1.61020932       4.13896491
H        0.11352648      -2.96323331       0.56035916      -1.39303367       1.72177721      -2.48280193
H       -0.25794397      -2.80713114      -1.00522440      -0.02600232      -0.90058350      -1.34831861
15
Properties=species:S:1:pos:R:3:forces:R:3 config_type=NMS-600 energy=-774328.852855119 pbc="F F F"
U        0.00298316       0.01347358      -0.00062583      -0.69795631      -0.62052341       3.79112398
O       -0.29950572       0.12428367       1.81038836       1.12800473      -0.29937141      -4.45814079
O        0.18214777      -0.24501324      -1.71604423      -0.21339169       0.52622870       0.49395543
O        2.50703698      -0.14151338      -0.16050201       1.40006207      -1.73049108      -2.42074963
H        3.17582901       0.07942391       0.54099625      -0.38279072      -0.44353376      -0.96722167
H        2.99200234      -0.67013989      -1.01403441      -1.63258351       2.33598373       3.64134872
O       -0.16348851       2.40105818       0.09823231       0.27507850       1.87922254       0.04494770
H       -0.53710562       2.85802864       0.96468631       1.25950577      -0.68898732      -2.71431997
H        0.20829341       3.04714591      -0.63999635      -1.33905158      -1.25355283       2.48250173
O       -2.43974159       0.17999862       0.12901106      -0.78062982      -1.25727458      -2.97129125
H       -2.83212202       0.26522749       1.00263142      -0.63505673      -0.08386641       0.28985098
H       -3.13450798      -0.14964637      -0.59026796       1.74474469       1.12328207       2.41782691
O        0.13640198      -2.47985264      -0.14244100       0.71839883      -0.69940835      -0.28717489
H        0.17394439      -3.03166329       0.68581111      -0.00223690       0.26294921      -1.17768098
H        0.48018778      -3.01964321      -0.93930630      -0.83961616       0.95054030       1.83613791
15
Properties=species:S:1:pos:R:3:forces:R:3 config_type=NMS-1000 energy=-774322.7783271018 pbc="F F F"
U       -0.02783456      -0.03546721      -0.06139413       1.99867066       2.80775728       1.71105124
O        0.06884739       0.32163388       1.72942170      -0.80178147      -1.53138773      -3.22095657
O        0.43207995       0.10602496      -1.79509357      -1.33766136      -0.63494648       2.32818629
O        2.35887798      -0.01852249       0.10535813       1.11058745      -0.16719035      -0.01197216
H        2.94970400      -0.28597543       0.89163524      -0.86387283       0.78914946      -1.82601413
H        2.86286049       0.25990461      -0.72556925      -0.32533048      -0.65387812       1.73603410
O        0.03391169       2.44842776       0.26380528      -2.81366563       2.61895402       1.87951261
H       -0.22945760       2.74305125       1.27771269       1.24733319      -1.00996604      -3.68384576
H       -0.43270847       3.17801464      -0.31627118       1.48730814      -1.84561220       1.36488634
O       -2.46234603       0.01008136       0.31515110      -2.51544349       0.22423766       0.98102155
H       -2.67162604       0.75516894       1.32630429      -0.19058474      -3.81197278      -4.71442796
H       -3.30406576      -0.62141053      -0.32686807       3.07049225       3.51120403       3.54253270
O        0.07551320      -2.34580470       0.14705178      -2.29688648      -3.14569028      -0.12521379
H       -1.13551578      -2.98396940       1.00897575       3.98264875       1.44438455      -2.82668879
H        0.46780335      -2.96758358      -0.64543542      -1.74394021       1.40634292       2.86947992
15
Properties=species:S:1:pos:R:3:forces:R:3 config_type=NMS-300 energy=-774328.5078600082 pbc="F F F"
U       -0.00008583      -0.00959351      -0.05877887      -0.05062129       0.41483316       2.23214578
O       -0.11467916       0.07438686       1.69206052       0.28748413      -0.26265003      -0.73679227
O       -0.00308902       0.05170794      -1.77714574       0.18071768      -0.13393367      -0.97795264
O        2.42023305      -0.09757754       0.19458200       3.19498424       2.85948230       0.18558381
H        3.07597914       0.26050295       0.94987863      -2.21476179      -1.43883266      -1.87211066
H        2.88971318       0.33503713      -0.60820912      -0.85869819      -1.24408550       1.36148545
O       -0.03934321       2.39127229       0.20867792      -0.18327340       2.97562963       0.28226453
H        0.18026082       2.84139359       1.11489296      -0.67174822      -0.93648168      -2.30506394
H       -0.32574136       3.14912591      -0.45221079       0.90012350      -1.96569856       1.86687207
O       -2.31333897       0.01667548       0.19841842      -4.42754596       1.71179068       3.22813741
H       -2.46071905       0.24689987       1.32679424       0.14539276      -1.05561098      -4.94360439
H       -3.29089796       0.16641629      -0.28782944       3.68258152      -0.60777771       1.82378318
O        0.04122444      -2.36323502       0.20565208       0.20575885      -2.56337122      -0.59637769