15
Properties=species:S:1:pos:R:3:forces:R:3 config_type=NMS-300 energy=-774330.0150791305 pbc="F F F"
U        0.00158803       0.01024740       0.01113698      -0.25675348      -1.15959360       1.54049728
O       -0.03587846      -0.08575930       1.76374982       0.06075549       0.32272106      -1.23427375
O        0.02107184       0.04527964      -1.72062104      -0.02625665      -0.03983728      -0.21045789
O        2.38636665      -0.06801163      -0.04561736       1.96084449       0.82121060      -0.18865522
H        3.07021799       0.31278497       0.58279922      -1.04785045      -0.67523763      -0.48480655
H        2.91152776      -0.14620617      -0.88671530      -0.64880484      -0.06230976       0.64916192
O       -0.05198515       2.37002025      -0.08922538       0.30890690       1.58874341       1.36917674
H        0.05616590       3.02578718       0.65482765      -0.16724930      -1.04847672      -0.23749914
H       -0.09815630       3.00449035      -0.81372141      -0.09010465      -0.13592197      -0.99252270
O       -2.40022912       0.04892664      -0.03549307      -0.44701354      -0.31084436       0.89491137
H       -2.93413632      -0.20798394       0.78894433       0.44699607       0.65175874      -1.87290237
H       -2.94248384       0.29135866      -0.82686992      -0.04047240      -0.38768107       1.02269066
O        0.04462012      -2.46805232       0.01579235       0.17483715      -1.93275600       0.63550205
H        0.15299065      -3.27303684       0.64772599      -0.22587100       2.12582679      -0.96142050
H       -0.01857238      -2.92684736      -0.84583226      -0.00343771       0.24273387       0.07199275
15
Properties=species:S:1:pos:R:3:forces:R:3 config_type=NMS-1000 energy=-774327.3666466192 pbc="F F F"
U        0.00486746      -0.01403172       0.00667290      -0.03159924       0.83335148      -1.48682871
O       -0.15332350       0.11779046       1.71970116       0.48740058      -0.35302911       0.37956398
O       -0.17062208       0.19635511      -1.74190329       0.46539722      -0.76754749       1.47216299
O        2.54384665      -0.10512034      -0.01441966       1.39171323       1.15607983       1.31678706
H        3.17623544       0.14985842       0.75336327      -1.56018331      -0.73740339      -1.32987577
H        3.10120690       0.15307732      -0.78000641      -0.40608431      -0.32612370       0.00194700
O       -0.04246462       2.47291049      -0.05634010      -2.31077686       3.17348516       1.46385267
H       -0.76248844       2.93542259       0.74075168       3.47629441      -1.50848224      -3.74608317
H        0.23294651       3.20359242      -0.78869495      -1.20427908      -2.22854097       2.56982552
O       -2.32724562       0.05216420       0.02873658       1.91459755       0.93327306      -5.58286153
H       -3.07296892       0.08108974       0.61158162      -1.50226358       0.15565523       0.34984572
H       -2.44929731       0.30037279      -1.06382632      -0.82227185      -1.00228594       4.63773310
O        0.00211521      -2.56190898       0.01062902       4.23848467      -2.67728754       2.67830118
H        0.72573649      -3.16818483       0.74370385      -3.48927313       2.85758483      -2.78512918
H        0.26285302      -3.09155567      -0.78036643      -0.64931692       0.49051711       0.06087708
15
Properties=species:S:1:pos:R:3:forces:R:3 config_type=NMS-1000 energy=-774326.8420692214 pbc="F F F"
U        0.00785878       0.00292371       0.03810140      -0.80077001      -0.66389406      -3.40703079
O       -0.01923669       0.17983315       1.76832388       0.13212386      -0.36321442      -0.17915528
O        0.06966166       0.04320789      -1.75947725      -0.13854409      -0.17797379       3.11280521
O        2.31117499      -0.32535732      -0.13358420       3.30921101      -1.54176243       2.06418985
H        3.00698335      -0.81737344       0.64728818      -2.63330656       2.26401796      -3.76075936
H        2.73326216      -0.22208119      -1.04841048      -0.15278299      -0.51660630       1.75191100
O       -0.39335727       2.30779942      -0.06233277       3.52650732       5.86504889       0.75288602
H        0.29642782       3.18920248       0.53892128      -3.20940495      -4.01910820      -2.32141698
H       -0.47520633       2.82034245      -0.94436821      -0.05319077      -1.21471195       1.54351357
O       -2.45021333       0.28355267      -0.12387635      -4.53611913       4.57762997       2.00286045
H       -2.96705482       0.91804664       0.70330950       2.57150799      -3.07118137      -2.81923265
H       -3.14112064       0.68323258      -0.81024366       2.32459144      -1.72519542       1.02638955
O        0.36109229      -2.54637752      -0.17136975       0.03243290      -1.56034727       3.11787021
H        0.45898136      -3.22306955       0.63454417      -0.28669530       2.15733365      -2.32448306
H        0.14388892      -3.14529566      -0.89542673      -0.08107154      -0.00425524      -0.56021068
15
Properties=species:S:1:pos:R:3:forces:R:3 config_type=NMS-600 energy=-774328.7260007018 pbc="F F F"
U       -0.01331720       0.01622953      -0.00199764       1.65276179      -1.48362310       0.57099944
O        0.24923456       0.12163227       1.73149876      -0.76273610       0.06418171      -1.14307807
O       -0.14643524      -0.23938905      -1.73579577       0.12418175       0.58100430       0.95125994
O        2.43742822      -0.12155984       0.14656715       2.61956071      -0.29860275      -1.88365621
H        3.08918602       0.28384286       0.86750776      -1.59451665      -1.42927263      -2.37249528
H        2.95757659      -0.50816108      -0.74454299      -1.36058720       1.73960229       3.80014614
O       -0.08038032       2.38566461       0.11152387      -2.89046832       3.09424171      -2.81663394
H       -0.07327073       2.84680585       0.97749435       0.05518196       0.01750892      -0.35320511
H       -0.67550475       3.07792796      -0.59640409       2.77724167      -2.81855186       3.07374409
O       -2.36297272       0.10255159      -0.09759183      -2.01341792       0.61966875      -0.90687835
H       -3.05451257       0.30156752       0.60650088       0.85925074      -0.36930187      -1.16149743
H       -2.80353427       0.16821373      -1.02254234       0.64229980      -0.25314354       2.12153220
O        0.12434904      -2.48906766      -0.09703471      -0.29557756      -2.19656096      -0.30729244
H       -0.12751847      -3.22002762       0.59193832       0.78095248       1.76983472      -1.76910578
H        0.32049037      -2.96883989      -0.98744773      -0.59776439       0.96717871       2.19614405
15
Properties=species:S:1:pos:R:3:forces:R:3 config_type=NMS-600 energy=-774325.794263647 pbc="F F F"
U        0.01426774      -0.00479935      -0.02527618      -0.87304481       0.75447454       0.53010016
O        0.01418225       0.03436347       1.72174116       0.00845557      -0.34712425      -0.79206760
O       -0.17187940       0.04491908      -1.76315931       0.45227313      -0.12467010       0.68970348
O        2.41176343       0.28544645       0.14579758       2.97519856      -1.85976987       0.22859833
H        2.99717454      -0.55644216       0.91647001      -1.84195191       4.18789561      -3.87118564
H        2.96094398       0.79554971      -0.66249040      -1.11636704      -2.62412103       3.45091905
O        0.21915922       2.43132629       0.08714411       3.17793084       1.25334526      -3.17025299
H       -0.04381643       3.00821799       0.86564625       0.95579775      -0.14501281      -1.32643170
H        1.11628772       2.93384617      -0.79013318      -4.28326190      -1.42617267       4.31867606
O       -2.45358208      -0.21926430       0.05773561      -3.80099140      -2.32959771      -1.03503927
H       -3.13036095      -0.50778718       0.80461741       2.11425950       1.07268829      -1.70903338
H       -3.01936707      -0.55082331      -0.79912994       2.08879751       1.40431737       2.66274122
O       -0.22055245      -2.45016328       0.09754517      -1.23089970      -2.00782899      -1.21147752
H       -0.57123738      -2.86331399       0.92737459       0.49740227       0.29551586      -0.62943320
H       -0.48443324      -3.13754252      -0.64346305       0.87924996       1.89683470       1.86465673
15
Properties=species:S:1:pos:R:3:forces:R:3 config_type=NMS-600 energy=-774328.2202472165 pbc="F F F"
U       -0.01774493       0.00521486      -0.02703524       0.68066385      -0.61748800      -0.85673890
O        0.06608241      -0.18741261       1.70205800      -0.38231360       0.32551545      -0.11252856
O        0.35996906       0.15458309      -1.73836548      -1.00043596      -0.16079346       0.97594859
O        2.31500374       0.03837101       0.03784349       1.05688110       0.35869658      -0.58051772
H        2.97694148       0.11781142       0.76703216      -0.35235689      -0.06682027      -0.69129114
H        2.74182288       0.21523344      -0.84856176      -0.10619249      -0.26796753       1.25758697
O        0.04955852       2.42527940      -0.00346621       0.14017374       1.57462781      -0.13784575
H        0.12398091       3.08343376       0.72041604      -0.10574568      -0.71313735       0.39786414
H        0.07366838       3.07712501      -0.74599680      -0.06720828      -0.95801724      -0.15518558
O       -2.46015326      -0.02110789       0.16048200       0.23750408      -0.60268329       1.95439804
H       -2.79119461      -0.27436708       1.08580572       0.28542483       0.51357857      -1.75489539
H       -3.14355547      -0.26807001      -0.47299670      -0.44700613       0.01577364      -0.20880426
O       -0.08205939      -2.48367698       0.17438794       2.24557811      -1.25621124       2.63133744
H        0.65119088      -2.75373685       1.20394081      -3.63053138       0.28137066      -4.96476882
H       -0.40758314      -3.25393073      -0.45685961       1.45150198       1.57533212       2.24266720
15
Properties=species:S:1:pos:R:3:forces:R:3 config_type=NMS-600 energy=-774327.1130500217 pbc="F F F"
U        0.00165814      -0.00522351       0.01962873      -0.41840686       0.28957096       0.53995911
O        0.39904568       0.16772993       1.72960371      -1.01727004      -0.28791948      -1.37195759
O       -0.26954741      -0.07857131      -1.70643060       0.58777078      -0.13091271       0.79703539
O        2.35314828      -0.11081583       0.09516720       3.88055690       0.99619886       2.77346114
H        2.75097331       0.20009748       1.06590797      -1.59418177      -1.18009267      -3.37199924
H        3.22874581      -0.26988160      -0.39910426      -1.86433981       0.22543189       0.39817528
O       -0.03907410       2.44463418       0.03545910      -4.42353976       5.80932925      -1.10154490
H       -0.40660982       3.21709532       0.71122894       1.91699161      -3.15861118      -1.19660088
H       -0.56260551       3.04470657      -0.76160857       2.45415166      -2.94387560       2.11594003
O       -2.50692327       0.09420823      -0.27115479      -2.42851678       1.21938815       1.40450137
H       -3.19792838       0.74451830       0.45646821       2.42014281      -3.52276136      -3.88676441
H       -2.92355516      -0.46408341      -1.08608134       0.51519969       2.32980935       2.98670969
O        0.06966383      -2.46105293      -0.12246464       1.71043751      -3.20474409      -2.12846902
H        0.24126142      -3.31968101       0.43776878      -0.54928661       2.37535940      -0.99895896
H        0.36972364      -2.81420090      -1.08967231      -1.18542071       1.18653701       3.04506122
15
Properties=species:S:1:pos:R:3:forces:R:3 config_type=NMS-600 energy=-774329.4421082564 pbc="F F F"
U       -0.01906291      -0.00620819      -0.00537039       1.35743544       0.58298127       0.80926038
O        0.16700471       0.04727763       1.73114033      -0.48085766       0.04012449      -0.57421347
O        0.08029788      -0.07605212      -1.73068838      -0.29585298      -0.05364427      -0.26730007
O        2.39929906      -0.15124376       0.04322965       0.71577285      -0.17736118      -1.07038807
H        2.90231935      -0.07303388       0.86951153       0.14865537      -0.05031889       0.02575868
H        3.06198288      -0.32898773      -0.68984479      -0.94213561       0.32597856       1.04485818
O       -0.17029351       2.52999608       0.07235721       0.79387289       0.56642497       0.68385818
H        0.24148069       3.03420846       0.91752749      -1.54301941      -0.86506351      -3.34279709
H       -0.39401289       3.04414039      -0.79233792       0.86665466      -0.40234004       2.59363802
O       -2.35729082       0.14661477      -0.03918428      -3.56386757       1.03501952       2.27719898
H       -2.81127380       0.59922369       0.84180007       1.35659921      -1.68171372      -3.16897170
H       -3.14787333      -0.15650135      -0.61687584       1.65626726       0.67511789       1.09283700
O        0.13820119      -2.41416959      -0.01171473      -0.05954830       0.20034635       1.39576308
H        0.26542815      -3.09128643       0.69328659      -0.14480780       0.53194713      -0.31117030
H        0.29104794      -2.86543703      -0.83107292       0.13329864      -0.73022858      -1.18642914
15
Properties=species:S:1:pos:R:3:forces:R:3 config_type=NMS-600 energy=-774328.7551764367 pbc="F F F"
U        0.01906023      -0.01646638       0.05315237      -1.83761619       1.73417057      -2.88135430
O       -0.13793828       0.02382946       1.77663394       0.34185526      -0.32309234       0.40733030
O       -0.10092837       0.16210661      -1.70206695       0.55564763      -0.63496503       1.65590846
O        2.31273474       0.06425924      -0.22124908       4.05338163      -2.86883336       2.19022237
H        2.80136242      -0.45960131       0.64904730      -1.44137482       2.33048797      -3.54327513
H        2.98864053      -0.03198225      -0.99492104      -1.51033326       0.33385641       1.68472425
O       -0.01521418       2.45686207      -0.20312313       2.17327167       5.20943156      -0.24292647
H        0.21267743       3.41613563       0.29635104      -1.18665526      -3.94746380      -0.69715727
H        0.28970225       2.88226013      -1.08450155      -0.94201721      -1.71503757       1.08235886
O       -2.34184779      -0.00790536      -0.17996891      -0.28482648      -0.33350078       2.59380241
H       -2.94576481      -0.13799221       0.61065871       0.67421697       0.27494560      -1.16538625
H       -2.88416049      -0.07036872      -0.95573154      -0.68879523       0.00292708      -1.12985781
O       -0.04191959      -2.42518958      -0.13134175       1.30363926      -1.15505046      -2.47981230
H       -0.09240110      -3.10358651       0.54746895      -0.19019864      -0.35124071       0.65019379
H        0.29728341      -2.95957999      -0.95582415      -1.02436870       1.44587676       1.87698845
15
Properties=species:S:1:pos:R:3:forces:R:3 config_type=NMS-1000 energy=-774327.38465791 pbc="F F F"
U        0.02781112      -0.00209322       0.01550178      -2.43503038       0.78235683       2.16394739
O       -0.32131690      -0.40850339       1.73843362       1.17216984       1.53317335      -2.37455910
O       -0.05052085       0.14036117      -1.71400267       0.53137415      -0.06798444       0.07445164
O        2.46563929       0.02513003      -0.14734775       3.15206398      -0.89624553       0.18869692
H        3.11494129       0.05818228       0.66122444      -1.57161934      -0.02992171      -1.96037656
H        3.08691401      -0.25708405      -0.93663008      -1.71290043       0.88604505       1.94981575
O        0.00345046       2.51488962      -0.18948745       0.53626280       1.67490443      -1.35279389
H       -0.22664075       3.27457356       0.47542743       0.75805954      -1.59720442      -2.08187327
H        0.31819784       2.86983955      -1.15601438      -1.28243410      -0.63988695       3.60567125
O       -2.49659807      -0.03781005       0.03100232      -2.74269459       1.35379434       0.21289093
H       -2.95915675       0.30853857       0.90469533       1.11499336      -1.16539625      -2.51763624
H       -3.24026699       0.00207620      -0.72047790       2.33940086      -0.09571854       2.30193898
O       -0.04843559      -2.23387963       0.07093288       3.08577492      -6.67543430       0.65663656
H       -0.11801800      -2.54071104       1.08689383       0.06831300       0.63538318      -3.09402543
H        0.57781035      -3.20519157      -0.47379716      -3.01953011       4.30299734       2.22880481
15
Properties=species:S:1:pos:R:3:forces:R:3 config_type=NMS-1000 energy=-774326.5479844144 pbc="F F F"
U       -0.00129003      -0.00537736       0.07465254      -0.58172275       0.06596570      -2.88108881
O        0.11192967       0.03891739       1.76705035      -0.09106861       0.08906260       2.14395849
O        0.07485630      -0.13649263      -1.64476059      -0.15200898       0.57146885      -0.27437143
O        2.43258942      -0.30605413      -0.26233197       2.62017968       3.99449415      -2.48139360
H        3.10963537      -0.30653438       0.49201851      -0.91218269       0.08104100      -1.41990378
H        2.90304833       0.48164347      -1.14283836      -1.83396859      -3.81763933       4.10638629
O       -0.30326425       2.49434706      -0.19748609       3.53638370       3.94372656       0.04803955
H        0.10692615       3.29826617       0.45651091      -1.89567671      -3.23752312      -2.18787816
H        0.04995098       2.87957431      -1.10517286      -1.37496014      -1.12598224       2.19754563
O       -2.55949586       0.25475179      -0.29369917      -0.77822399      -0.39443381       0.48653092
H       -3.11563796       0.52641443       0.48333589       0.45483688      -0.23644167      -0.90410424
H       -3.21684469      -0.08871922      -0.96744920       1.06710003       0.48835711       0.80939552
O        0.19585291      -2.32745764      -0.29692708       3.79203297      -2.87170480      -3.11960773
H        0.20196774      -3.13188478       0.30238453      -0.01035545       1.00649799      -0.75482425
H        1.00585993      -2.66704557      -1.24042110      -3.83660802       1.44126060       4.22971068
15
Properties=species:S:1:pos:R:3:forces:R:3 config_type=NMS-300 energy=-774329.252048464 pbc="F F F"
U       -0.00294260      -0.00360033      -0.00738827       0.29487819       0.04830908      -1.33996633
O        0.11635496       0.05609391       1.72336980      -0.27348171      -0.17303392      -0.12864783
O       -0.11584123       0.05694314      -1.77058527       0.36764736      -0.22830947       1.70855263
O        2.37166163      -0.13174718       0.10170023       0.49183969       0.49441535      -3.06251920
H        2.94197313      -0.12283749       0.84384439       0.96674372      -0.06518200       2.06165048
H        3.02774028       0.01043697      -0.65006988      -1.16189905      -0.32615386       0.81039779
O       -0.09855358       2.43818496       0.05616491      -1.65499254       3.85184809       0.26813835
H       -0.61508187       3.16470797       0.73099144       2.27031595      -2.91785990      -2.64778488
H        0.07984733       2.97513530      -0.81318062      -0.53295513      -1.17079246       2.20399199
O       -2.32784838       0.08840742      -0.04513543      -5.07878212       2.12435873       1.80335423
H       -2.92418775       0.49190872       0.75729935       2.38225277      -1.54123021      -1.94322464
H       -3.10476239       0.17138750      -0.70594492       2.01618581      -0.55918058       0.38685867
O        0.11560265      -2.48780784       0.04280256       0.01235306      -0.19078709       0.26291834
H        0.21810490      -3.13202226       0.78442209      -0.08839054       0.60691840      -0.43897770
H        0.09885380      -3.03403998      -0.76372011      -0.01424656       0.05162782       0.05504354
15
Properties=species:S:1:pos:R:3:forces:R:3 config_type=NMS-600 energy=-774327.5361303124 pbc="F F F"
U        0.01268734      -0.00295080      -0.03785722      -0.97196022       1.25044562       1.65735371
O       -0.12731484       0.01915044       1.70569371       0.28015960      -0.00103556      -0.70494210
O        0.05130711      -0.17529052      -1.73990759       0.13934836       0.08955480      -1.12444218
O        2.44362057       0.05680915       0.06392170       3.25612477      -2.81119407      -2.74630183
H        2.86632494       0.05824300       0.93570717       0.18336599       0.11833518       0.26072692
H        3.25341448      -0.50559863      -0.57771088      -3.65498613       2.62571197       2.62197019
O       -0.01875954       2.50159867       0.18804617       2.62921709       3.44169550       1.60620652
H        0.52260358       2.91650588       1.08147983      -2.40783839      -1.56693934      -3.62245891
H        0.00884530       3.30873051      -0.49115925      -0.14170480      -2.43778606       1.92497738
O       -2.55327270       0.00477720       0.15182099      -2.34673215      -1.66592498       2.71243930
H       -2.76339359      -0.31407343       1.20093965       0.30764257       1.50942234      -4.36384845
H       -3.46742979      -0.03619711      -0.38391725       2.85644288       0.10112678       1.74065632
O        0.03385244      -2.34147006       0.07939347      -3.35713810      -1.56780842       4.61164223
H       -0.64956442      -2.84294341       0.86236038       3.20100195       1.97679716      -3.18467921
H       -0.05850926      -2.91529707      -0.66508940       0.02872678      -1.06236088      -1.39061071
15
Properties=species:S:1:pos:R:3:forces:R:3 config_type=NMS-1000 energy=-774326.8145325418 pbc="F F F"
U        0.02091356       0.00982316      -0.00194477      -2.39538280      -2.31347896      -3.22439518
O       -0.18450336       0.06137512       1.69103242      -0.06385957       0.08708093       2.41924061
O        0.13005493      -0.02943990      -1.75182309       0.09684929       0.07793765       0.60806770
O        2.25548869       0.02647544      -0.07372101       7.39323263      -2.10219733       0.19171938
H        3.05655615      -0.47493507       0.63340275      -3.48524160       2.40817790      -2.83698615
H        2.84480958       0.17117913      -0.95796365      -1.93432927      -0.38835174       2.72524673
O        0.01437151       2.19599720       0.02277004      -1.22008222       4.04962920       2.01091936
H       -0.52055041       2.51728945       0.92211104       2.22268442      -0.14563165      -3.44295341
H        0.36204923       2.93318258      -0.60283633      -1.12721578      -1.09312946       1.66685881
O       -2.48472627       0.00741671       0.11866822      -1.89464956      -0.47022092      -2.15895688
H       -2.92815664       0.06046067       0.96824998      -0.15562088       0.01209472       0.66663055
H       -3.28727946      -0.15579594      -0.53054938       2.41915163       0.46269978       1.46672638
O       -0.06028330      -2.35917714       0.00789511       4.52017214      -2.74073137      -2.85002522
H       -0.09304275      -3.03055785       0.74489109       0.03868154       0.58076227      -0.86277198
H        0.85352631      -2.80004802      -0.79451616      -4.41031867       1.57779602       3.62201665
15
Properties=species:S:1:pos:R:3:forces:R:3 config_type=NMS-600 energy=-774329.3767917679 pbc="F F F"
U       -0.02995703      -0.00859010       0.05505531       2.00045206       0.38486885      -1.30858082
O        0.17691315       0.12320293       1.73816401      -0.29485301      -0.11114732       2.21331095
O        0.16091406       0.04148549      -1.63377780      -0.59676058      -0.17037714      -1.93988988
O        2.47555178       0.02973168      -0.20085011      -1.69495309       0.96584800       6.68177813
H        3.08357760       0.25415548       0.61974422      -1.65721337      -0.72145626      -2.28056328
H        3.04224281      -0.00342324      -0.89566798       2.85042127      -0.23877738      -3.99016035
O        0.03164104       2.41646704      -0.15587883       0.64174664       0.12651851       3.17330054
H        0.27704782       3.11492350       0.55964938      -0.68072819      -1.36741253      -2.00642078
H       -0.05335749       2.78737108      -1.02083933       0.01637664       1.09454462      -1.10265142
O       -2.38450896      -0.02465985      -0.22125521      -1.77136059      -0.40777055       1.01200750
H       -2.97623592       0.04024700       0.59654113       0.69253070      -0.06932783      -1.47106569
H       -2.96533216      -0.34349373      -0.96310095       0.53559508       0.47248712       0.68241358
O       -0.01061716      -2.44628333      -0.23876939      -1.64852605      -1.78927436      -1.22960205
H       -0.03774764      -3.00670672       0.56949085       0.12701839       0.06461954      -0.53140452
H       -0.44750052      -3.04315981      -0.98985590       1.48030262       1.76934043       2.09771345
15
Properties=species:S:1:pos:R:3:forces:R:3 config_type=NMS-300 energy=-774329.6219906122 pbc="F F F"
U       -0.00552907       0.01088287      -0.00788165       0.56984492      -0.48755285      -1.02402408
O        0.14812193      -0.20312693       1.71797717      -0.34023318       0.53172128      -0.51405345
O       -0.09237525      -0.05193809      -1.77134895       0.04524234       0.35819311       1.69808573
O        2.46116604      -0.09143026       0.11271306       0.85590130       0.34525138      -0.58683936
H        2.98784030      -0.22350705       0.93560104      -0.38466368       0.05762006      -0.53187616
H        3.12971431       0.07301120      -0.61517877      -0.89837357      -0.28879467       0.95310756
O       -0.08338481       2.46005515      -0.00369114      -0.45803946       2.31455436      -0.81111091
H        0.28581231       3.07378779       0.76478552      -1.32645720      -1.24561107      -2.54459665
H       -0.52271959       2.99718081      -0.84137593       1.84334129      -1.37713540       3.36756922
O       -2.44674729       0.08458842      -0.02916019      -0.37316033       0.04886204      -1.23551925
H       -3.07059483       0.06452752       0.72169398      -0.02581896       0.04063163      -0.29674804
H       -2.96834606       0.14995960      -0.89114008       0.63082267      -0.15264815       1.55931077
O        0.11683808      -2.37113426       0.07673777      -1.41142301      -2.57533910       0.87566615
H       -0.20931930      -2.85136991       0.92924107       0.98181729       1.11940759      -1.78149791
H        0.02807994      -3.09458403      -0.62340130       0.28964400       1.31096749       0.87465499
15
Properties=species:S:1:pos:R:3:forces:R:3 config_type=NMS-600 energy=-774327.8228100406 pbc="F F F"
U       -0.00459073      -0.00243971       0.01689296       0.39475314       0.17743846       0.72438990
O        0.29057703      -0.04299544       1.73210196      -0.48998646       0.04411535      -0.06516849
O       -0.17586456       0.05314133      -1.69685011       0.03116024      -0.03692740      -0.82193384
O        2.36362988       0.02251822       0.09511884       1.50029046       1.41067150       2.30262025
H        2.90482602       0.46221249       0.88164232      -1.47738639      -1.42470587      -2.21093650
H        2.97448391      -0.05038780      -0.64532579       0.43579028       0.00115414      -0.37795024
O        0.09759424       2.37168811      -0.07326170      -3.72907274       3.02330706      -3.43835169
H        0.06728205       3.07197485       0.62229115       0.20691641      -0.49842334      -0.31324668
H       -0.60178414       2.87944443      -0.92932565       3.37328948      -2.21197249       3.74242975
O       -2.40928821      -0.00459923      -0.21539717      -4.21151147      -2.21782976       1.53675443
H       -3.14278242      -0.32068839       0.49501123       2.60384941       1.37528881      -1.44396056
H       -2.97071336      -0.31676490      -0.98635485       1.30493912       0.80784400       0.21561039
O       -0.03636164      -2.35262034      -0.05264396      -0.79989385      -4.16751092       0.53504940
H        0.43685080      -2.85622583       0.81182494      -2.14731150       1.23760545      -3.55886039
H       -0.65618152      -3.04053032      -0.72809566       3.00670838       2.48221793       3.16965599
15
Properties=species:S:1:pos:R:3:forces:R:3 config_type=NMS-1000 energy=-774328.0980997725 pbc="F F F"
U       -0.01542318      -0.00697592      -0.05800144       1.39401169      -0.20238677       0.32830261
O        0.41512039      -0.15908780       1.65369578      -2.57362557       0.44689319      -0.96592554
O        0.02926646       0.31423828      -1.82604858      -0.38256260      -0.81820602       2.63807336
O        2.27553174      -0.09257328       0.35266439       2.08655766       3.04507909      -6.84093485
H        2.84107605      -0.04231742       1.07892566       1.44497030      -0.16749187       2.89853506
H        2.87288668       0.49327505      -0.37750935      -2.01465172      -2.53006317       2.49222143
O       -0.00069707       2.36158507       0.08235088      -2.37463237       2.82378882      -0.25095472
H       -0.29228255       2.89742246       0.91625383       0.94858914      -1.11131994      -1.87002042
H       -0.39404664       2.90960403      -0.72501061       1.33091779      -1.39208377       2.19340491
O       -2.48907834       0.00674889       0.12605815      -0.67006340       1.99537367       2.27734356
H       -3.02077735       0.54616438       0.89288147       1.41595238      -2.03114358      -2.91529376
H       -2.93067566       0.08395738      -0.74201738      -0.53037333       0.12650136       0.49727977
O        0.04446962      -2.39492333       0.36181048       1.09427484      -0.28270674      -5.18282008